       6
 i =        0, time =        0.000, E =       -24.8150044780
  C        -0.4250950000        0.0001530000       -0.0002530000
  H        -0.0791700000       -0.1936130000        1.0195260000
  H        -0.0796010000        0.9803110000       -0.3423960000
  H        -0.0794480000       -0.7861290000       -0.6780680000
 Cl        -2.2537280000       -0.0000530000        0.0000880000
 Cl         2.4177750000       -0.0000340000        0.0000560000
       6
 i =      100, time =      100.000, E =       -24.8107633055
  C        -0.4335874045       -0.1427195620       -0.1445966665
  H        -0.1595732176       -0.6533195023        0.7523606525
  H        -0.0378243575        0.8567546277       -0.1888669823
  H        -0.3362652415       -0.7365425946       -1.0788324841
 Cl        -2.2416872810        0.0364534766        0.0889396028
 Cl         2.4170108828        0.0270342094       -0.0252705518
       6
 i =      200, time =      200.000, E =       -24.8107903918
  C        -0.3633375242        0.1448349755        0.1461436180
  H        -0.0544688649       -0.5758228376        0.9169051139
  H        -0.1667750303        1.1668511048        0.3951190953
  H        -0.0728129808       -0.1807735831       -0.9184336376
 Cl        -2.2086919277       -0.0337924862        0.0631758556
 Cl         2.3534043359       -0.0269570922       -0.1238443958
       6
 i =      300, time =      300.000, E =       -24.8109641077
  C        -0.4342818986       -0.0825084179       -0.0575747877
  H        -0.0621828282       -0.9651246675        0.4583802020
  H         0.0623857458        0.7659953661        0.3421416420
  H        -0.1545579858       -0.1848140637       -1.1783841469
 Cl        -2.2668203361        0.0252886001        0.1611729364
 Cl         2.4315953780        0.0135600861       -0.1308934930
       6
 i =      400, time =      400.000, E =       -24.8078896875
  C        -0.3899585201       -0.0026906519        0.0257077464
  H         0.0088768072       -0.9900508670        0.2332674160
  H         0.1721561025        0.6261479847        0.6660133165
  H        -0.0234642275        0.2957336981       -0.9968870112
 Cl        -2.2059240518        0.0073847025        0.1906435112
 Cl         2.3468152129       -0.0045540872       -0.1965461338
       6
 i =      500, time =      500.000, E =       -24.8132272063
  C        -0.4600645976        0.1034034484        0.1948518471
  H        -0.0261797329       -0.9068737196        0.0787979338
  H        -0.0797804611        0.5937731112        1.1149241195
  H        -0.1190534722        0.7109797167       -0.6968882529
 Cl        -2.2406899785       -0.0149062823        0.2163786569
 Cl         2.4162084805       -0.0314553605       -0.2964837161
       6
 i =      600, time =      600.000, E =       -24.8082631961
  C        -0.3875503762       -0.1757916176       -0.1352393335
  H        -0.3212437241       -1.2148003137       -0.4902662044
  H         0.0492918401       -0.0069804727        0.8468598557
  H        -0.3131080253        0.5525048431       -0.9067754289
 Cl        -2.2043600897        0.0573643146        0.3484792565
 Cl         2.3655485901        0.0211987723       -0.2869896686
       6
 i =      700, time =      700.000, E =       -24.8091107409
  C        -0.3261530409        0.0579777538        0.1253997618
  H        -0.1230294314       -0.8636755047       -0.4972036841
  H         0.0101494313       -0.0280571325        1.1658247947
  H        -0.2172162953        1.0067708953       -0.2838915110
 Cl        -2.2207572165        0.0001875966        0.3255622535
 Cl         2.3538969481       -0.0231187540       -0.3789513093
       6
 i =      800, time =      800.000, E =       -24.8121018267
  C        -0.4340966474        0.0247051442        0.0858195166
  H        -0.1629812224       -0.6320470278       -0.8245023979
  H         0.1063574941       -0.3398143916        1.0028289906
  H        -0.1092675142        1.0227410507       -0.0978991913
 Cl        -2.2379390987        0.0112749343        0.3902249565
 Cl         2.4029793587       -0.0211100102       -0.4215536842
       6
 i =      900, time =      900.000, E =       -24.8066863670
  C        -0.4483096262       -0.0717421609       -0.0139290320
  H        -0.1584654111       -0.4158056713       -1.0159540885
  H         0.1356853168       -0.6877491863        0.6849761588
  H         0.0337615742        0.8497660096        0.0123193769
 Cl        -2.1576429788        0.0363038520        0.4508661948
 Cl         2.3224697373       -0.0048028719       -0.4370561589
       6
 i =     1000, time =     1000.000, E =       -24.8107250889
  C        -0.4404557617        0.1332924241        0.2269896528
  H        -0.0431943257        0.0498536805       -0.7995990006
  H         0.1181298425       -0.6943718640        0.7539061729
  H        -0.1038291133        1.0775032005        0.6781428576
 Cl        -2.1901978329       -0.0109254106        0.4496010946
 Cl         2.3534975352       -0.0465600347       -0.5444493508
       6
 i =     1100, time =     1100.000, E =       -24.8109437068
  C        -0.4040240489       -0.0963885642       -0.0464731936
  H        -0.3595853406        0.1777879800       -1.0956420135
  H        -0.1417431899       -1.1441334007        0.1951132259
  H         0.0783215204        0.6310157977        0.6709289580
 Cl        -2.1772030319        0.0458393400        0.5639319006
 Cl         2.3393652367       -0.0036704682       -0.5416285830
       6
 i =     1200, time =     1200.000, E =       -24.8084498356
  C        -0.3085851537        0.0459366776        0.1399431438
  H        -0.2346541980        0.6423115185       -0.7085383424
  H        -0.1412845724       -0.9946109617        0.1033186047
  H         0.0826907070        0.5653104178        1.0409341851
 Cl        -2.1760402371        0.0101272698        0.5561350506
 Cl         2.3021807463       -0.0317645696       -0.6159006010
       6
 i =     1300, time =     1300.000, E =       -24.8106760027
  C        -0.3592840499        0.0091272742        0.1030329947
  H        -0.1866268980        0.7980880706       -0.6194636565
  H        -0.2082917955       -0.9821323001       -0.3475394609
  H         0.1697029236        0.1331490542        1.1292707176
 Cl        -2.1786776810        0.0244385568        0.6310315004
 Cl         2.3200596864       -0.0261027016       -0.6705185204
       6
 i =     1400, time =     1400.000, E =       -24.8105307509
  C        -0.4227890898       -0.0922184758        0.0092264815
  H        -0.0563640746        0.8023120984       -0.4672459475
  H        -0.3381158658       -0.8761672670       -0.7166365626
  H         0.2943804397       -0.4055245427        0.8383633750
 Cl        -2.0969990462        0.0511959008        0.6975049514
 Cl         2.2563380733       -0.0063443740       -0.6907758415
       6
 i =     1500, time =     1500.000, E =       -24.8086544913
  C        -0.4106000034        0.1458558971        0.2780819637
  H         0.0310861195        1.1403027868        0.2791632200
  H        -0.1309130578       -0.3222035949       -0.6386862480
  H         0.2625257756       -0.3740969482        1.0105173566
 Cl        -2.1222795775       -0.0085675444        0.6924345005
 Cl         2.2700177692       -0.0534873536       -0.8051189331
       6
 i =     1600, time =     1600.000, E =       -24.8109202412
  C        -0.4743193011       -0.0736984004        0.0384525489
  H         0.1878224064        0.8220023992        0.2740444792
  H        -0.6078573752       -0.1517979042       -1.0453342448
  H        -0.0170339086       -0.9956542017        0.4687790743
 Cl        -2.0539717741        0.0442020831        0.8004286287
 Cl         2.2403482542       -0.0100010310       -0.8048234141
       6
 i =     1700, time =     1700.000, E =       -24.8041627288
  C        -0.2890423841        0.0370602945        0.1948705767
  H         0.2781370108        0.7075647915        0.8988536153
  H        -0.4260143675        0.4434683436       -0.8074712864
  H        -0.2218441068       -0.9852007371        0.2297301041
 Cl        -2.0737996567        0.0157088444        0.8270706485
 Cl         2.1954936665       -0.0329977182       -0.9021862388
       6
 i =     1800, time =     1800.000, E =       -24.8071625665
  C        -0.3010583050        0.0942526385        0.2509248572
  H         0.4209848246        0.1960609151        1.1225332311
  H        -0.3360662310        0.8648456167       -0.5367129433
  H        -0.2293537781       -0.8508900845       -0.1412622737
 Cl        -2.0903277561        0.0060662091        0.9000789479
 Cl         2.2096875366       -0.0439867630       -0.9976940979
       6
 i =     1900, time =     1900.000, E =       -24.8063124305
  C        -0.4084675580       -0.1472983560        0.0163927271
  H         0.5119012100       -0.4723913818        0.6086242884
  H        -0.1365173566        0.7901928054       -0.5533977204
  H        -0.6278155522       -0.9211338730       -0.6583924531
 Cl        -1.9699202843        0.0653523119        0.9948175563
 Cl         2.1287383426        0.0016830875       -0.9831912350
       6
 i =     2000, time =     2000.000, E =       -24.8099796292
  C        -0.3474557993        0.1014841659        0.3020892831
  H         0.4409189191       -0.4976486630        0.7737231765
  H         0.1270605304        1.0889512635        0.2424553998
  H        -0.4766057390       -0.2354628452       -0.7265956690
 Cl        -2.0161930178        0.0001944635        1.0237952879
 Cl         2.1445671319       -0.0447107034       -1.1343378336
       6
 i =     2100, time =     2100.000, E =       -24.8128471251
  C        -0.3647525405        0.0194954559        0.1960230553
  H         0.1200423557       -0.9340596559        0.3228250194
  H         0.2649805197        0.8812739016        0.4448543624
  H        -0.6869717795        0.1196983876       -0.8648020099
 Cl        -1.9487149645        0.0199568521        1.0932712062
 Cl         2.0941311221       -0.0284828231       -1.1568866760
       6
 i =     2200, time =     2200.000, E =       -24.8007598005
  C        -0.3905158979       -0.1632298844        0.1479101960
  H        -0.4627467716       -1.1501713304       -0.2235963798
  H         0.4727728775        0.2125447209        0.7447957317
  H        -0.7801884496        0.5989589255       -0.6720753857
 Cl        -1.8914004494        0.0611596301        1.1696641089
 Cl         2.0588561244        0.0037485194       -1.2154517693
       6
 i =     2300, time =     2300.000, E =       -24.8087813137
  C        -0.2700742648        0.1404819790        0.3619809064
  H        -0.3183959500       -0.5493535322       -0.4209422519
  H         0.5404384505       -0.1491242158        1.0137041425
  H        -0.3174787315        1.2173915966        0.0876789561
 Cl        -1.9011629056       -0.0118488065        1.1851263436
 Cl         2.0086329161       -0.0505152864       -1.3270710744
       6
 i =     2400, time =     2400.000, E =       -24.8100141260
  C        -0.3914791734       -0.1246758529        0.1069845821
  H        -0.7809938676       -0.2341903865       -0.8711790394
  H         0.3596576491       -0.8759127262        0.3756014559
  H         0.1069387051        0.9043222857        0.1506785212
 Cl        -1.8014205868        0.0500666932        1.2903620135
 Cl         1.9562450602       -0.0019978207       -1.3167688362
       6
 i =     2500, time =     2500.000, E =       -24.8081957950
  C        -0.3030282570       -0.0043198551        0.2936088760
  H        -0.5158340639        0.3691493903       -0.7133150381
  H         0.3299273589       -0.9166274490        0.2586649042
  H         0.4136312959        0.7746415801        0.7107123547
 Cl        -1.8407624551        0.0183103638        1.3225211368
 Cl         1.9502089922       -0.0233242124       -1.4292377025
       6
 i =     2600, time =     2600.000, E =       -24.8121880274
  C        -0.3250640198        0.0162542755        0.2571481532
  H        -0.5102235260        0.7058645083       -0.5679555431
  H        -0.1218163693       -0.9251294418       -0.2205135458
  H         0.4689245240        0.3879828573        0.8601648142
 Cl        -1.7793731841        0.0143141191        1.3785231323
 Cl         1.9073966587       -0.0246364057       -1.4676460059
       6
 i =     2700, time =     2700.000, E =       -24.8082087171
  C        -0.3819614230       -0.1785821545        0.1719259254
  H        -0.3129966405        0.8888663060       -0.2342118265
  H        -0.6360134277       -0.9469229184       -0.6057372040
  H         0.4507176443       -0.4270695328        0.8070784986
 Cl        -1.6811916413        0.0597650083        1.4369625631
 Cl         1.8380198996        0.0145080144       -1.4942411604
       6
 i =     2800, time =     2800.000, E =       -24.8060847411
  C        -0.2510935875        0.1434987257        0.3422700903
  H         0.0539500500        1.1709023453        0.6710710502
  H        -0.5293057724       -0.0933474003       -0.6999602360
  H         0.3817834513       -0.6235498234        0.6961326893
 Cl        -1.6924144861       -0.0206354356        1.4809703878
 Cl         1.7934012659       -0.0409052894       -1.6158623211
       6
 i =     2900, time =     2900.000, E =       -24.8110762865
  C        -0.3344873397       -0.0140493854        0.2210319160
  H         0.4947785660        0.5750488865        0.6868387937
  H        -0.6161136269        0.5009194024       -0.6817622629
  H        -0.0101039538       -1.0055180245        0.0921285025
 Cl        -1.5974016040        0.0127167620        1.5525283804
 Cl         1.7277169242       -0.0099790513       -1.6301411014
       6
 i =     3000, time =     3000.000, E =       -24.8100682143
  C        -0.3261353551       -0.1165558967        0.2946955322
  H         0.6975565203       -0.2356225079        0.7960843625
  H        -0.2122255895        0.7471481324       -0.3842899279
  H        -0.4302546189       -1.0492694620       -0.2998258671
 Cl        -1.5644249468        0.0376865166        1.6173095864
 Cl         1.6866081078        0.0170693059       -1.7202976593
       6
 i =     3100, time =     3100.000, E =       -24.8083631441
  C        -0.2493970179        0.2220576622        0.3372068840
  H         0.5695485692       -0.3918617562        0.7281713447
  H         0.0072611022        1.2077064661        0.1052744466
  H        -0.5984161798       -0.1336943856       -0.6468820087
 Cl        -1.5138663635       -0.0509474378        1.6470299094
 Cl         1.6122323732       -0.0436935748       -1.7665406629
       6
 i =     3200, time =     3200.000, E =       -24.8096943739
  C        -0.2670293209       -0.1092069061        0.2623432097
  H         0.1209701780       -1.0923540265        0.4928531049
  H         0.4789446371        0.6616231438        0.3647440154
  H        -0.9157043937       -0.1385496985       -0.6525950678
 Cl        -1.4485873990        0.0298826664        1.6985771665
 Cl         1.5612905645        0.0232800786       -1.7932499525
       6
 i =     3300, time =     3300.000, E =       -24.8094143535
  C        -0.2031294532       -0.0337199733        0.3505846568
  H        -0.1417973255       -1.1134026874        0.1984917185
  H         0.7307100713        0.3810845291        0.7443379844
  H        -0.7622365859        0.4281807876       -0.5304188418
 Cl        -1.4372194411        0.0086252962        1.7338370309
 Cl         1.5242243848        0.0114260238       -1.8643007847
       6
 i =     3400, time =     3400.000, E =       -24.8112426574
  C        -0.3041752675        0.0475340645        0.2834401993
  H        -0.5589073881       -0.8361190149       -0.1976064341
  H         0.7405830133        0.0835254441        0.5668465144
  H        -0.5027699136        0.9670406214       -0.2870056193
 Cl        -1.3518443827       -0.0174751303        1.7636781699
 Cl         1.4772825961       -0.0047441574       -1.8620078325
       6
 i =     3500, time =     3500.000, E =       -24.8057807220
  C        -0.2268172245       -0.1153855954        0.3996942476
  H        -0.7935497589       -0.6167187203       -0.4059320885
  H         0.7249817467       -0.7374813345        0.5285636281
  H         0.1717635663        0.8328349847       -0.1215260587
 Cl        -1.3342374884        0.0219813900        1.7993691697
 Cl         1.4214057965        0.0319123065       -1.9347766354
       6
 i =     3600, time =     3600.000, E =       -24.8090924448
  C        -0.2106371886        0.1645715310        0.3696134300
  H        -0.8446819072        0.3772745824       -0.5048951987
  H         0.3245295161       -0.7832296393        0.0795461368
  H         0.4249256682        1.0276157106        0.3591275743
 Cl        -1.2647060635       -0.0534626758        1.8380406383
 Cl         1.3520341378       -0.0199835539       -1.9613432547
       6
 i =     3700, time =     3700.000, E =       -24.8121802551
  C        -0.2376080005       -0.1266107846        0.3148987522
  H        -0.7163621384        0.6216755664       -0.3314507364
  H        -0.3687249450       -1.1403329676       -0.0946754222
  H         0.7732517246        0.0524292172        0.4796211729
 Cl        -1.1889512514        0.0170265494        1.8878439887
 Cl         1.2915746982        0.0391024363       -1.9960140485
       6
 i =     3800, time =     3800.000, E =       -24.8110443012
  C        -0.1376594278        0.0212046089        0.3806692986
  H        -0.1739302180        1.1072092689        0.1414974816
  H        -0.7471811580       -0.6343060156       -0.3236325070
  H         0.8510712814       -0.3919346254        0.6274090460
 Cl        -1.1648913780       -0.0242167410        1.9384992631
 Cl         1.2267801214        0.0147121301       -2.0800893447
       6
 i =     3900, time =     3900.000, E =       -24.8111370253
  C        -0.2032131001        0.0297715912        0.2836872759
  H         0.2492341197        1.0309544672        0.3027257108
  H        -1.0096247910       -0.0850537014       -0.4258983382
  H         0.6039883087       -0.6607647648        0.3069804156
 Cl        -1.0853073290       -0.0329576820        1.9648870070
 Cl         1.1718595275        0.0147462221       -2.0661881355
       6
 i =     4000, time =     4000.000, E =       -24.8138640638
  C        -0.1566713069       -0.1596967448        0.3937732526
  H         0.6543840040        0.5963228646        0.3837982447
  H        -0.8317879373        0.0695731784       -0.4231407464
  H         0.2455016242       -1.1667195155        0.2542944621
 Cl        -1.0612508674        0.0116462730        1.9838827690
 Cl         1.1256531181        0.0566750665       -2.1233640543
       6
 i =     4100, time =     4100.000, E =       -24.8107973397
  C        -0.2261489547        0.1755764544        0.4129783184
  H         0.8089867925        0.6209804214        0.4999275066
  H        -0.7801114491        0.8710792084       -0.2325470543
  H        -0.1946243976       -0.7634612703       -0.2232401086
 Cl        -0.9892893894       -0.0745324545        2.0091647408
 Cl         1.0838774826       -0.0056822751       -2.1502960536
       6
 i =     4200, time =     4200.000, E =       -24.8109558996
  C        -0.1797953418       -0.1413203539        0.3233755365
  H         0.8427185620       -0.4734169478        0.4105429585
  H        -0.2363611950        0.8111062381       -0.0773140546
  H        -0.6876867411       -0.9393070389       -0.2209394332
 Cl        -0.9246855122        0.0019907406        2.0239764637
 Cl         1.0011699382        0.0629706932       -2.1366898174
       6
 i =     4300, time =     4300.000, E =       -24.8126699445
  C        -0.1020012188        0.0463403581        0.3867139243
  H         0.6926264155       -0.7196419994        0.4184143130
  H         0.2216868804        1.0640034144        0.2948420373
  H        -0.9403878625       -0.2256817606       -0.3175316539
 Cl        -0.9099155935       -0.0520836356        2.0791712447
 Cl         0.9584741627        0.0329914469       -2.2214004102
       6
 i =     4400, time =     4400.000, E =       -24.8111179257
  C        -0.1803473318        0.0863586814        0.2874940103
  H         0.2032686139       -0.9255570759        0.0701891867
  H         0.6080723159        0.8361071355        0.3611205664
  H        -1.0736105920        0.4868132141       -0.2524204621
 Cl        -0.8104667405       -0.0707136040        2.0930182351
 Cl         0.8922823583        0.0301410203       -2.1954691674
       6
 i =     4500, time =     4500.000, E =       -24.8110383520
  C        -0.0323112873       -0.1713116422        0.3562406313
  H        -0.2317577197       -1.1332634827       -0.0355584424
  H         1.0177255758        0.0004667841        0.4490232192
  H        -0.5461080916        0.5527695003       -0.2651607458
 Cl        -0.7851045958       -0.0077831124        2.0948067238
 Cl         0.8024931452        0.0822911117       -2.2196779572
       6
 i =     4600, time =     4600.000, E =       -24.8079984800
  C        -0.1944448261        0.1769743750        0.3759926716
  H        -0.8230596733       -0.3883812100       -0.3604317493
  H         0.9166103073       -0.0759176779        0.1936021388
  H        -0.3206230546        1.2200701917        0.0604411367
 Cl        -0.6939988023       -0.1055742324        2.1518362731
 Cl         0.7795896738        0.0241133826       -2.2761580767
       6
 i =     4700, time =     4700.000, E =       -24.8127465946
  C        -0.0950931860       -0.0854545404        0.4032120235
  H        -0.9564752023       -0.2928429575       -0.2365638666
  H         0.6159656614       -0.9563118897        0.2492360509
  H         0.4149581417        0.8116431436        0.1657031357
 Cl        -0.6334001117       -0.0409703769        2.1345068235
 Cl         0.6767604852        0.0823401097       -2.2761458722
       6
 i =     4800, time =     4800.000, E =       -24.8103809503
  C        -0.0540702291       -0.0423652773        0.4313024371
  H        -0.9096625974        0.2782219876       -0.1461734873
  H         0.1701078115       -1.1271734304        0.2076792596
  H         0.7528614085        0.5907889573        0.3485213815
 Cl        -0.5767281395       -0.0583720309        2.1465154579
 Cl         0.6079291194        0.0800451101       -2.3042568584
       6
 i =     4900, time =     4900.000, E =       -24.8065964621
  C        -0.2344700233        0.1313951389        0.4243487810
  H        -0.8644314311        1.0201261161        0.1244957611
  H        -0.4603396561       -0.9275818142        0.0379800031
  H         0.8250207206        0.4045751450        0.2931484310
 Cl        -0.4625831253       -0.1108538631        2.1730539664
 Cl         0.5694859772        0.0521878143       -2.3297359588
       6
 i =     5000, time =     5000.000, E =       -24.8122186751
  C         0.0551941037       -0.1477574511        0.4117248100
  H        -0.1088914566        0.8225166705       -0.0599073203
  H        -0.6330448422       -0.8387140131       -0.0592257061
  H         1.0525019871       -0.5249332003        0.3589843913
 Cl        -0.4476165405       -0.0481781464        2.1527949445
 Cl         0.4333499880        0.1136006573       -2.2990657222
       6
 i =     5100, time =     5100.000, E =       -24.8107905173
  C        -0.0911501219        0.0580629955        0.3950193191
  H         0.2189322664        1.0614037300        0.0819877436
  H        -1.0145457494       -0.0735789033       -0.1224895488
  H         0.6909716980       -0.6878967478        0.0514587377
 Cl        -0.3582145066       -0.1102988306        2.2338919348
 Cl         0.4053306526        0.0820823191       -2.3679957169
       6
 i =     5200, time =     5200.000, E =       -24.8100453949
  C        -0.0795126145       -0.0628979294        0.3593897915
  H         0.7719675257        0.5858711360        0.0782080143
  H        -1.0406724934        0.2099592864       -0.0552303420
  H         0.1993722931       -1.1029599154       -0.0393928242
 Cl        -0.2923044157       -0.0831638736        2.2469096626
 Cl         0.3344741799        0.1131851132       -2.3681647441
       6
 i =     5300, time =     5300.000, E =       -24.8072316887
  C         0.0668722914       -0.0253322682        0.2712314430
  H         1.0883742225        0.1713003394        0.1833197542
  H        -0.5544092160        0.7802430821        0.0493956949
  H        -0.3459847360       -0.9980027002       -0.0277888541
 Cl        -0.2508356859       -0.0995344955        2.2423826704
 Cl         0.2360979613        0.1094183750       -2.3400644499
       6
 i =     5400, time =     5400.000, E =       -24.8117509896
  C        -0.1560020758        0.0163269081        0.4137611813
  H         0.8709363291       -0.1778756545        0.0975154786
  H        -0.3768052704        1.0725140249        0.2360559234
  H        -0.9105981309       -0.7444212628        0.0978332636
 Cl        -0.1552751473       -0.1179069660        2.2825496429
 Cl         0.2332270066        0.1080860571       -2.4349562196
       6
 i =     5500, time =     5500.000, E =       -24.8117087285
  C         0.1627705328       -0.0990470325        0.3887446055
  H         0.9809176066       -0.7860491528        0.1868154834
  H         0.3227687122        0.9780264423        0.1658671940
  H        -0.7965691756       -0.4573457487       -0.0842639614
 Cl        -0.1682521557       -0.0900426201        2.1887171167
 Cl         0.1119530449        0.1311231048       -2.3280148832
       6
 i =     5600, time =     5600.000, E =       -24.8122469288
  C        -0.1176651163        0.0249037470        0.4056398617
  H         0.3506583748       -0.7982695978       -0.0876582440
  H         0.3973947070        0.9595594894        0.1655280059
  H        -1.1194118929        0.1626230105        0.0992521677
 Cl        -0.0464315521       -0.1324821760        2.2396880781
 Cl         0.1101132470        0.1148173956       -2.3821139909
       6
 i =     5700, time =     5700.000, E =       -24.8117707819
  C         0.0178640284       -0.0730403361        0.4712509041
  H         0.1278048542       -1.0709698859       -0.0237960145
  H         0.9393408305        0.4741819597        0.0867549351
  H        -0.8929731612        0.3769006387        0.0729157760
 Cl        -0.0235792362       -0.1136993083        2.2376579987
 Cl         0.0258369965        0.1446762497       -2.4011388240
       6
 i =     5800, time =     5800.000, E =       -24.8104522085
  C         0.0535455350        0.0389089267        0.4243747572
  H        -0.3130896322       -0.8814430685       -0.0929768959
  H         1.0949668023        0.3277496142        0.1001198281
  H        -0.6064538236        0.8347452445        0.1340824476
 Cl         0.0200814221       -0.1440630103        2.1674580153
 Cl        -0.0299473361        0.1228721366       -2.3152103502
       6
 i =     5900, time =     5900.000, E =       -24.8100404229
  C        -0.0421056557       -0.1018826856        0.4003165156
  H        -0.8866984272       -0.7281385609        0.1068448149
  H         0.9219576686       -0.4002622439        0.0481295134
  H        -0.1341173711        0.9014058909        0.1824664480
 Cl         0.1199631519       -0.1221434557        2.2220930576
 Cl        -0.0896266281        0.1630936255       -2.3672734528
       6
 i =     6000, time =     6000.000, E =       -24.8092172237
  C         0.1566905543       -0.0075079047        0.3644778326
  H        -0.9742891228       -0.0062433052        0.0699304877
  H         0.6211601379       -0.9493032866        0.0048283844
  H         0.6655765169        0.9624958130        0.2185933831
 Cl         0.1662752869       -0.1565871961        2.2479069204
 Cl        -0.2149801156        0.1589141511       -2.3796925041
       6
 i =     6100, time =     6100.000, E =       -24.8114949012
  C        -0.0774369106       -0.0330202776        0.3189372449
  H        -0.8892653523        0.6928230370        0.2069555553
  H        -0.3052790399       -1.0179138249       -0.0009046768
  H         0.8692057460        0.3665312322       -0.0534799792
 Cl         0.3087899483       -0.1603671747        2.1907898325
 Cl        -0.2600450564        0.1703565666       -2.3031448039
       6
 i =     6200, time =     6200.000, E =       -24.8066996697
  C         0.1673904191       -0.0437529560        0.3092220049
  H        -0.0186423445        0.9842244947        0.0612450821
  H        -0.5699373149       -0.7110776940        0.0030511447
  H         1.0913947149       -0.4929487049       -0.1050006677
 Cl         0.3512655454       -0.1726930362        2.2619464273
 Cl        -0.4090074628        0.1937456271       -2.3655152091
       6
 i =     6300, time =     6300.000, E =       -24.8095662712
  C         0.0178269638        0.0131722035        0.4436240133
  H         0.3849698834        0.9849746154        0.0385391665
  H        -1.0655885632        0.0213606154        0.2429751330
  H         0.5556445288       -0.8075165474       -0.2080458448
 Cl         0.4586180188       -0.1955610633        2.1521621484
 Cl        -0.4478428673        0.1854271411       -2.3045093589
       6
 i =     6400, time =     6400.000, E =       -24.8081986170
  C         0.1545166111       -0.0693931094        0.3786816467
  H         0.8746455119        0.5284154339       -0.0737344700
  H        -0.8212356861        0.3577490611        0.2147492720
  H         0.2680609827       -1.1088605045       -0.0492620878
 Cl         0.4756943450       -0.1772238322        2.0969415707
 Cl        -0.5239192239        0.2070450259       -2.2278075569
       6
 i =     6500, time =     6500.000, E =       -24.8113909625